/home/openkim/hackathon-project/HeatCapacityPhonon/structure_template (written by ASE) 

250 	 atoms 
2  atom types
0.0      16.192745289171938  xlo xhi
0.0      14.023328777433692  ylo yhi
0.0      13.221321164442427  zlo zhi
     8.0963726445859692      8.0963726445859656      4.6744429258112268  xy xz yz


Atoms 

     1   2                       0                       0                       0
     2   1                       0      1.8697771703244923       1.322132116444243
     3   2      1.6192745289171937     0.93488858516224549      2.6442642328884856
     4   1      1.6192745289171937      2.8046657554867376      3.9663963493327286
     5   2      3.2385490578343874       1.869777170324491      5.2885284657769711
     6   1      3.2385490578343874      3.7395543406489833      6.6106605822212146
     7   2      4.8578235867515813      2.8046657554867362      7.9327926986654571
     8   1      4.8578235867515813      4.6744429258112286      9.2549248151096997
     9   2      6.4770981156687748       3.739554340648982      10.577056931553942
    10   1      6.4770981156687748      5.6093315109734734      11.899189047998185
    11   2      1.6192745289171937      2.8046657554867385  5.4983563686419297e-17
    12   1      1.6192745289171937      4.6744429258112312       1.322132116444243
    13   2      3.2385490578343874      3.7395543406489837      2.6442642328884856
    14   1      3.2385490578343874      5.6093315109734769       3.966396349332729
    15   2      4.8578235867515813      4.6744429258112294       5.288528465776972
    16   1      4.8578235867515813      6.5442200961357218      6.6106605822212146
    17   2      6.4770981156687748      5.6093315109734752      7.9327926986654571
    18   1      6.4770981156687748      7.4791086812979666      9.2549248151096997
    19   2      8.0963726445859692        6.54422009613572      10.577056931553942
    20   1      8.0963726445859692      8.4139972664602105      11.899189047998185
    21   2      3.2385490578343874      5.6093315109734769  1.0996712737283859e-16
    22   1      3.2385490578343874      7.4791086812979692       1.322132116444243
    23   2      4.8578235867515813      6.5442200961357226       2.644264232888486
    24   1      4.8578235867515813      8.4139972664602158      3.9663963493327286
    25   2      6.4770981156687748      7.4791086812979675      5.2885284657769711
    26   1      6.4770981156687748      9.3488858516224589      6.6106605822212137
    27   2      8.0963726445859692      8.4139972664602123      7.9327926986654562
    28   1      8.0963726445859692      10.283774436784705      9.2549248151096997
    29   2      9.7156471735031626      9.3488858516224589      10.577056931553944
    30   1      9.7156471735031626      11.218663021946952      11.899189047998187
    31   2      4.8578235867515813      8.4139972664602158  1.6495069105925789e-16
    32   1      4.8578235867515813      10.283774436784707      1.3221321164442432
    33   2      6.4770981156687748      9.3488858516224607      2.6442642328884856
    34   1      6.4770981156687748      11.218663021946952      3.9663963493327281
    35   2      8.0963726445859692      10.283774436784705      5.2885284657769711
    36   1      8.0963726445859692      12.153551607109197      6.6106605822212137
    37   2      9.7156471735031626      11.218663021946952       7.932792698665458
    38   1      9.7156471735031626      13.088440192271445      9.2549248151096997
    39   2      11.334921702420356      12.153551607109197      10.577056931553942
    40   1      11.334921702420356      14.023328777433688      11.899189047998185
    41   2      6.4770981156687748      11.218663021946954  2.1993425474567719e-16
    42   1      6.4770981156687748      13.088440192271445      1.3221321164442428
    43   2      8.0963726445859692      12.153551607109199      2.6442642328884851
    44   1      8.0963726445859692       14.02332877743369      3.9663963493327277
    45   2      9.7156471735031626      13.088440192271445       5.288528465776972
    46   1      9.7156471735031626      14.958217362595938      6.6106605822212146
    47   2      11.334921702420356      14.023328777433692      7.9327926986654571
    48   1      11.334921702420356      15.893105947758183      9.2549248151096997
    49   2       12.95419623133755      14.958217362595935      10.577056931553942
    50   1       12.95419623133755      16.827994532920428      11.899189047998187
    51   2      3.2385490578343874 -6.2442945781299878e-16 -1.6706104123861201e-16
    52   1      3.2385490578343874      1.8697771703244916      1.3221321164442426
    53   2      4.8578235867515813     0.93488858516224482      2.6442642328884856
    54   1      4.8578235867515813      2.8046657554867371      3.9663963493327281
    55   2      6.4770981156687748      1.8697771703244903      5.2885284657769711
    56   1      6.4770981156687748      3.7395543406489824      6.6106605822212146
    57   2      8.0963726445859692      2.8046657554867358      7.9327926986654571
    58   1      8.0963726445859692      4.6744429258112286      9.2549248151096997
    59   2      9.7156471735031609      3.7395543406489815      10.577056931553942
    60   1      9.7156471735031609      5.6093315109734734      11.899189047998185
    61   2      4.8578235867515813       2.804665755486738 -3.3412208247722402e-16
    62   1      4.8578235867515813      4.6744429258112303      1.3221321164442426
    63   2      6.4770981156687748      3.7395543406489833      2.6442642328884851
    64   1      6.4770981156687748       5.609331510973476      3.9663963493327286
    65   2      8.0963726445859692      4.6744429258112286      5.2885284657769711
    66   1      8.0963726445859692      6.5442200961357209      6.6106605822212137
    67   2      9.7156471735031626      5.6093315109734743      7.9327926986654562
    68   1      9.7156471735031626      7.4791086812979657      9.2549248151096997
    69   2      11.334921702420354      6.5442200961357191      10.577056931553942
    70   1      11.334921702420354      8.4139972664602105      11.899189047998185
    71   2      6.4770981156687748       5.609331510973476 -2.7913851879080472e-16
    72   1      6.4770981156687748      7.4791086812979692      1.3221321164442432
    73   2      8.0963726445859692      6.5442200961357218      2.6442642328884856
    74   1      8.0963726445859692      8.4139972664602141      3.9663963493327281
    75   2      9.7156471735031626      7.4791086812979675      5.2885284657769711
    76   1      9.7156471735031626      9.3488858516224589      6.6106605822212137
    77   2      11.334921702420356      8.4139972664602123      7.9327926986654562
    78   1      11.334921702420356      10.283774436784704      9.2549248151096979
    79   2      12.954196231337548      9.3488858516224589      10.577056931553942
    80   1      12.954196231337548      11.218663021946952      11.899189047998185
    81   2      8.0963726445859692      8.4139972664602158  2.1993425474567719e-16
    82   1      8.0963726445859692      10.283774436784707      1.3221321164442428
    83   2      9.7156471735031626      9.3488858516224607      2.6442642328884851
    84   1      9.7156471735031626      11.218663021946952      3.9663963493327277
    85   2      11.334921702420356      10.283774436784705      5.2885284657769702
    86   1      11.334921702420356      12.153551607109197      6.6106605822212128
    87   2       12.95419623133755      11.218663021946952      7.9327926986654571
    88   1       12.95419623133755      13.088440192271444      9.2549248151096997
    89   2      14.573470760254743      12.153551607109199      10.577056931553942
    90   1      14.573470760254743       14.02332877743369      11.899189047998187
    91   2      9.7156471735031609      11.218663021946954  3.4361865828431756e-16
    92   1      9.7156471735031609      13.088440192271445       1.322132116444243
    93   2      11.334921702420356      12.153551607109197      2.6442642328884856
    94   1      11.334921702420356       14.02332877743369      3.9663963493327281
    95   2       12.95419623133755      13.088440192271445       5.288528465776972
    96   1       12.95419623133755      14.958217362595938      6.6106605822212146
    97   2      14.573470760254743       14.02332877743369      7.9327926986654571
    98   1      14.573470760254743      15.893105947758182      9.2549248151096997
    99   2      16.192745289171935      14.958217362595937      10.577056931553944
   100   1      16.192745289171935      16.827994532920428      11.899189047998185
   101   2      6.4770981156687748 -1.2488589156259976e-15 -3.3412208247722402e-16
   102   1      6.4770981156687748       1.869777170324491      1.3221321164442426
   103   2      8.0963726445859692     0.93488858516224427      2.6442642328884851
   104   1      8.0963726445859692      2.8046657554867367      3.9663963493327277
   105   2      9.7156471735031626      1.8697771703244896      5.2885284657769711
   106   1      9.7156471735031626       3.739554340648982      6.6106605822212137
   107   2      11.334921702420354      2.8046657554867354      7.9327926986654562
   108   1      11.334921702420354      4.6744429258112277      9.2549248151096997
   109   2       12.95419623133755      3.7395543406489806      10.577056931553942
   110   1       12.95419623133755      5.6093315109734725      11.899189047998185
   111   2      8.0963726445859692      2.8046657554867371 -2.7913851879080472e-16
   112   1      8.0963726445859692      4.6744429258112294      1.3221321164442423
   113   2      9.7156471735031626      3.7395543406489828      2.6442642328884847
   114   1      9.7156471735031626      5.6093315109734752      3.9663963493327281
   115   2      11.334921702420356      4.6744429258112286      5.2885284657769711
   116   1      11.334921702420356      6.5442200961357209      6.6106605822212137
   117   2      12.954196231337548      5.6093315109734743      7.9327926986654562
   118   1      12.954196231337548      7.4791086812979657      9.2549248151096979
   119   2      14.573470760254743      6.5442200961357182       10.57705693155394
   120   1      14.573470760254743      8.4139972664602087      11.899189047998183
   121   2      9.7156471735031626       5.609331510973476 -6.6824416495444804e-16
   122   1      9.7156471735031626      7.4791086812979684      1.3221321164442428
   123   2      11.334921702420356      6.5442200961357209      2.6442642328884851
   124   1      11.334921702420356      8.4139972664602141      3.9663963493327277
   125   2       12.95419623133755      7.4791086812979666      5.2885284657769702
   126   1       12.95419623133755      9.3488858516224589      6.6106605822212128
   127   2      14.573470760254743      8.4139972664602123      7.9327926986654553
   128   1      14.573470760254743      10.283774436784704      9.2549248151096979
   129   2      16.192745289171938      9.3488858516224571      10.577056931553942
   130   1      16.192745289171938       11.21866302194695      11.899189047998187
   131   2      11.334921702420356      8.4139972664602141  3.4361865828431756e-16
   132   1      11.334921702420356      10.283774436784705       1.322132116444243
   133   2       12.95419623133755      9.3488858516224589      2.6442642328884856
   134   1       12.95419623133755       11.21866302194695      3.9663963493327281
   135   2      14.573470760254743      10.283774436784704      5.2885284657769702
   136   1      14.573470760254743      12.153551607109195      6.6106605822212128
   137   2      16.192745289171935       11.21866302194695      7.9327926986654571
   138   1      16.192745289171935      13.088440192271445      9.2549248151096997
   139   2       17.81201981808913      12.153551607109197      10.577056931553944
   140   1       17.81201981808913      14.023328777433688      11.899189047998185
   141   2       12.95419623133755      11.218663021946952 -5.5827703758160945e-16
   142   1       12.95419623133755      13.088440192271444      1.3221321164442419
   143   2      14.573470760254743      12.153551607109197      2.6442642328884847
   144   1      14.573470760254743       14.02332877743369      3.9663963493327272
   145   2      16.192745289171938      13.088440192271444      5.2885284657769711
   146   1      16.192745289171938      14.958217362595937      6.6106605822212137
   147   2       17.81201981808913      14.023328777433692      7.9327926986654562
   148   1       17.81201981808913      15.893105947758183      9.2549248151097014
   149   2      19.431294347006325      14.958217362595935      10.577056931553942
   150   1      19.431294347006325      16.827994532920428      11.899189047998187
   151   2      9.7156471735031626 -2.0953329783640274e-15 -7.2322772864086734e-16
   152   1      9.7156471735031626      1.8697771703244905      1.3221321164442423
   153   2      11.334921702420356      0.9348885851622436      2.6442642328884847
   154   1      11.334921702420356      2.8046657554867358      3.9663963493327281
   155   2      12.954196231337548      1.8697771703244894      5.2885284657769711
   156   1      12.954196231337548       3.739554340648982      6.6106605822212137
   157   2      14.573470760254743      2.8046657554867345      7.9327926986654562
   158   1      14.573470760254743      4.6744429258112268      9.2549248151096979
   159   2      16.192745289171938      3.7395543406489797      10.577056931553942
   160   1      16.192745289171938      5.6093315109734716      11.899189047998185
   161   2      11.334921702420356      2.8046657554867367 -6.6824416495444804e-16
   162   1      11.334921702420356      4.6744429258112286      1.3221321164442419
   163   2       12.95419623133755       3.739554340648982      2.6442642328884851
   164   1       12.95419623133755      5.6093315109734743      3.9663963493327277
   165   2      14.573470760254743      4.6744429258112277      5.2885284657769702
   166   1      14.573470760254743        6.54422009613572      6.6106605822212128
   167   2      16.192745289171938      5.6093315109734734      7.9327926986654553
   168   1      16.192745289171938      7.4791086812979648      9.2549248151096979
   169   2       17.81201981808913      6.5442200961357173      10.577056931553942
   170   1       17.81201981808913      8.4139972664602087      11.899189047998183
   171   2       12.95419623133755      5.6093315109734752 -5.4455976141580768e-16
   172   1       12.95419623133755      7.4791086812979666       1.322132116444243
   173   2      14.573470760254743        6.54422009613572      2.6442642328884856
   174   1      14.573470760254743      8.4139972664602123      3.9663963493327281
   175   2      16.192745289171935      7.4791086812979657      5.2885284657769702
   176   1      16.192745289171935      9.3488858516224571      6.6106605822212128
   177   2       17.81201981808913      8.4139972664602105      7.9327926986654553
   178   1       17.81201981808913      10.283774436784702      9.2549248151096979
   179   2      19.431294347006325      9.3488858516224571      10.577056931553944
   180   1      19.431294347006325       11.21866302194695      11.899189047998185
   181   2      14.573470760254743      8.4139972664602141 -5.5827703758160945e-16
   182   1      14.573470760254743      10.283774436784705      1.3221321164442419
   183   2      16.192745289171938      9.3488858516224589      2.6442642328884847
   184   1      16.192745289171938       11.21866302194695      3.9663963493327272
   185   2       17.81201981808913      10.283774436784704      5.2885284657769693
   186   1       17.81201981808913      12.153551607109195      6.6106605822212119
   187   2      19.431294347006325       11.21866302194695      7.9327926986654562
   188   1      19.431294347006325      13.088440192271444      9.2549248151097014
   189   2      21.050568875923517      12.153551607109197      10.577056931553942
   190   1      21.050568875923517      14.023328777433688      11.899189047998187
   191   2      16.192745289171938      11.218663021946952 -1.4601727334475365e-15
   192   1      16.192745289171938      13.088440192271444       1.322132116444241
   193   2       17.81201981808913      12.153551607109197      2.6442642328884838
   194   1       17.81201981808913      14.023328777433688      3.9663963493327263
   195   2      19.431294347006325      13.088440192271444      5.2885284657769702
   196   1      19.431294347006325      14.958217362595938      6.6106605822212128
   197   2      21.050568875923521       14.02332877743369      7.9327926986654571
   198   1      21.050568875923521      15.893105947758182      9.2549248151096979
   199   2      22.669843404840712      14.958217362595935      10.577056931553942
   200   1      22.669843404840712      16.827994532920428      11.899189047998183
   201   2       12.95419623133755 -2.4977178312519951e-15 -6.6824416495444804e-16
   202   1       12.95419623133755      1.8697771703244899      1.3221321164442419
   203   2      14.573470760254743     0.93488858516224327      2.6442642328884842
   204   1      14.573470760254743      2.8046657554867358      3.9663963493327277
   205   2      16.192745289171938      1.8697771703244885      5.2885284657769702
   206   1      16.192745289171938      3.7395543406489806      6.6106605822212128
   207   2       17.81201981808913      2.8046657554867336      7.9327926986654571
   208   1       17.81201981808913      4.6744429258112259      9.2549248151096997
   209   2      19.431294347006325      3.7395543406489793      10.577056931553942
   210   1      19.431294347006325      5.6093315109734707      11.899189047998183
   211   2      14.573470760254743      2.8046657554867358 -5.4455976141580768e-16
   212   1      14.573470760254743      4.6744429258112277       1.322132116444243
   213   2      16.192745289171935      3.7395543406489815      2.6442642328884856
   214   1      16.192745289171935      5.6093315109734734      3.9663963493327281
   215   2       17.81201981808913      4.6744429258112268      5.2885284657769702
   216   1       17.81201981808913      6.5442200961357191      6.6106605822212128
   217   2      19.431294347006325      5.6093315109734716      7.9327926986654571
   218   1      19.431294347006325       7.479108681297963      9.2549248151096997
   219   2      21.050568875923517      6.5442200961357164       10.57705693155394
   220   1      21.050568875923517      8.4139972664602087      11.899189047998185
   221   2      16.192745289171938      5.6093315109734743 -5.5827703758160945e-16
   222   1      16.192745289171938      7.4791086812979666      1.3221321164442419
   223   2       17.81201981808913        6.54422009613572      2.6442642328884847
   224   1       17.81201981808913      8.4139972664602123      3.9663963493327272
   225   2      19.431294347006325      7.4791086812979657      5.2885284657769693
   226   1      19.431294347006325      9.3488858516224571      6.6106605822212119
   227   2      21.050568875923517      8.4139972664602105      7.9327926986654562
   228   1      21.050568875923517      10.283774436784702      9.2549248151096979
   229   2      22.669843404840712      9.3488858516224571      10.577056931553942
   230   1      22.669843404840712       11.21866302194695      11.899189047998187
   231   2       17.81201981808913      8.4139972664602141 -1.4601727334475365e-15
   232   1       17.81201981808913      10.283774436784705       1.322132116444241
   233   2      19.431294347006325      9.3488858516224589      2.6442642328884838
   234   1      19.431294347006325       11.21866302194695      3.9663963493327263
   235   2      21.050568875923521      10.283774436784704      5.2885284657769684
   236   1      21.050568875923521      12.153551607109195       6.610660582221211
   237   2      22.669843404840712       11.21866302194695      7.9327926986654571
   238   1      22.669843404840712      13.088440192271444      9.2549248151096979
   239   2      24.289117933757908      12.153551607109197      10.577056931553942
   240   1      24.289117933757908      14.023328777433688      11.899189047998183
   241   2      19.431294347006325      11.218663021946952 -1.3364883299088961e-15
   242   1      19.431294347006325      13.088440192271444      1.3221321164442412
   243   2      21.050568875923517      12.153551607109197      2.6442642328884838
   244   1      21.050568875923517      14.023328777433688      3.9663963493327263
   245   2      22.669843404840712      13.088440192271442      5.2885284657769702
   246   1      22.669843404840712      14.958217362595935      6.6106605822212146
   247   2      24.289117933757908      14.023328777433688      7.9327926986654553
   248   1      24.289117933757908       15.89310594775818      9.2549248151096997
   249   2      25.908392462675099      14.958217362595933       10.57705693155394
   250   1      25.908392462675099      16.827994532920428      11.899189047998185

Masses 

    1    2
