/home/openkim/test-drivers/HeatCapacityPhonon/zero_temperature_crystal.lmp (written by ASE) 

54 	 atoms 
2  atom types
0.0      9.7156471735031626  xlo xhi
0.0      8.4139972664602176  ylo yhi
0.0      7.9327926986654589  zlo zhi
     4.8578235867515813     -4.8578235867515795      2.8046657554867425  xy xz yz


Atoms 

     1   2                       0                       0                       0
     2   1                       0      1.8697771703244934       1.322132116444243
     3   2      1.6192745289171939     0.93488858516224704      2.6442642328884864
     4   1      1.6192745289171939      2.8046657554867407      3.9663963493327294
     5   2      3.2385490578343878      1.8697771703244941      5.2885284657769729
     6   1      3.2385490578343878      3.7395543406489877      6.6106605822212163
     7   2      1.6192745289171939      2.8046657554867402  5.4983563686419297e-17
     8   1      1.6192745289171939      4.6744429258112339       1.322132116444243
     9   2      3.2385490578343878      3.7395543406489873      2.6442642328884864
    10   1      3.2385490578343878      5.6093315109734805      3.9663963493327299
    11   2      4.8578235867515822      4.6744429258112348      5.2885284657769738
    12   1      4.8578235867515822       6.544220096135728      6.6106605822212163
    13   2      3.2385490578343878      5.6093315109734805  1.0996712737283859e-16
    14   1      3.2385490578343878      7.4791086812979737       1.322132116444243
    15   2      4.8578235867515822      6.5442200961357271      2.6442642328884869
    16   1      4.8578235867515822      8.4139972664602212      3.9663963493327294
    17   2      6.4770981156687757      7.4791086812979746      5.2885284657769729
    18   1      6.4770981156687757      9.3488858516224678      6.6106605822212154
    19   2      3.2385490578343878  3.2814189731538559e-16  4.9907277353648191e-16
    20   1      3.2385490578343878      1.8697771703244936      1.3221321164442434
    21   2      4.8578235867515822     0.93488858516224749      2.6442642328884869
    22   1      4.8578235867515822      2.8046657554867407      3.9663963493327299
    23   2      6.4770981156687766      1.8697771703244945      5.2885284657769738
    24   1      6.4770981156687766      3.7395543406489882      6.6106605822212172
    25   2      4.8578235867515822      2.8046657554867402  5.5405633722290121e-16
    26   1      4.8578235867515822      4.6744429258112339      1.3221321164442434
    27   2      6.4770981156687757      3.7395543406489873      2.6442642328884869
    28   1      6.4770981156687757      5.6093315109734814      3.9663963493327303
    29   2      8.0963726445859709      4.6744429258112348      5.2885284657769738
    30   1      8.0963726445859709       6.544220096135728      6.6106605822212172
    31   2      6.4770981156687757      5.6093315109734805  6.0903990090932051e-16
    32   1      6.4770981156687757      7.4791086812979737      1.3221321164442441
    33   2      8.0963726445859692       6.544220096135728      2.6442642328884873
    34   1      8.0963726445859692      8.4139972664602212      3.9663963493327299
    35   2      9.7156471735031644      7.4791086812979746      5.2885284657769747
    36   1      9.7156471735031644      9.3488858516224678      6.6106605822212172
    37   2      6.4770981156687757  6.5628379463077118e-16  9.9814554707296383e-16
    38   1      6.4770981156687757      1.8697771703244941      1.3221321164442439
    39   2      8.0963726445859709     0.93488858516224782      2.6442642328884878
    40   1      8.0963726445859709      2.8046657554867411      3.9663963493327303
    41   2      9.7156471735031644       1.869777170324495      5.2885284657769738
    42   1      9.7156471735031644      3.7395543406489886      6.6106605822212172
    43   2      8.0963726445859692      2.8046657554867407  1.0531291107593831e-15
    44   1      8.0963726445859692      4.6744429258112339      1.3221321164442441
    45   2      9.7156471735031644      3.7395543406489877      2.6442642328884873
    46   1      9.7156471735031644      5.6093315109734814      3.9663963493327308
    47   2      11.334921702420358      4.6744429258112357      5.2885284657769747
    48   1      11.334921702420358       6.544220096135728      6.6106605822212172
    49   2      9.7156471735031644      5.6093315109734805  1.1081126744458024e-15
    50   1      9.7156471735031644      7.4791086812979746      1.3221321164442446
    51   2      11.334921702420358       6.544220096135728      2.6442642328884878
    52   1      11.334921702420358      8.4139972664602212      3.9663963493327312
    53   2      12.954196231337551      7.4791086812979746      5.2885284657769738
    54   1      12.954196231337551      9.3488858516224678      6.6106605822212163

Masses 

    1    2
